# vtk DataFile Version 2.0
FFDResults
ASCII
DATASET RECTILINEAR_GRID
DIMENSIONS	12	12	14
X_COORDINATES 12 float
0.000000	0.050000	0.150000	0.250000	0.350000	0.450000	0.550000	0.650000	0.750000	0.850000	0.950000	1.000000	
Y_COORDINATES 12 float
0.000000	0.050000	0.150000	0.250000	0.350000	0.450000	0.550000	0.650000	0.750000	0.850000	0.950000	1.000000	
Z_COORDINATES 14 float
0.000000	0.012500	0.037500	0.062500	0.087500	0.200000	0.400000	0.600000	0.800000	0.912500	0.937500	0.962500	0.987500	1.000000	
POINT_DATA 2016
SCALARS T float 1
LOOKUP_TABLE default
16.666666	20.000000	20.000000	20.000000	20.000000	20.000000	20.000000	20.000000	20.000000	20.000000	20.000000	16.666666	20.000000	20.000000	20.000000	20.000000	20.000000	20.000000	20.000000	20.000000	20.000000	20.000000	20.000000	20.000000	20.000000	20.000000	20.000000	20.000000	20.000000	20.000000	20.000000	20.000000	20.000000	20.000000	20.000000	20.000000	20.000000	20.000000	20.000000	20.000000	20.000000	20.000000	20.000000	20.000000	20.000000	20.000000	20.000000	20.000000	20.000000	20.000000	20.000000	20.000000	20.000000	20.000000	20.000000	20.000000	20.000000	20.000000	20.000000	20.000000	20.000000	20.000000	20.000000	20.000000	20.000000	20.000000	20.000000	20.000000	20.000000	20.000000	20.000000	20.000000	20.000000	20.000000	20.000000	20.000000	20.000000	20.000000	20.000000	20.000000	20.000000	20.000000	20.000000	20.000000	20.000000	20.000000	20.000000	20.000000	20.000000	20.000000	20.000000	20.000000	20.000000	20.000000	20.000000	20.000000	20.000000	20.000000	20.000000	20.000000	20.000000	20.000000	20.000000	20.000000	20.000000	20.000000	20.000000	20.000000	20.000000	20.000000	20.000000	20.000000	20.000000	20.000000	20.000000	20.000000	20.000000	20.000000	20.000000	20.000000	20.000000	20.000000	20.000000	20.000000	20.000000	20.000000	20.000000	20.000000	20.000000	20.000000	20.000000	20.000000	16.666666	20.000000	20.000000	20.000000	20.000000	20.000000	20.000000	20.000000	20.000000	20.000000	20.000000	16.666666	10.000000	10.000000	10.000000	10.000000	10.000000	10.000000	10.000000	10.000000	10.000000	10.000000	10.000000	10.000000	20.000000	14.518943	14.149289	13.879863	13.598683	13.272279	12.872088	12.410118	11.957340	11.780180	12.581793	12.581793	20.000000	14.785655	14.393470	14.098837	13.799865	13.454078	13.038301	12.600000	12.176425	11.997097	12.842999	12.842999	20.000000	14.953176	14.570327	14.278393	13.980899	13.644354	13.245868	12.790078	12.344006	12.090096	12.922668	12.922668	20.000000	15.029707	14.651757	14.358961	14.058156	13.718934	13.320623	12.856280	12.397614	12.109325	12.940619	12.940619	20.000000	15.039914	14.661402	14.367190	14.065446	13.723779	13.324140	12.860383	12.402339	12.106525	12.941422	12.941422	20.000000	15.039112	14.659739	14.364529	14.062725	13.722484	13.321091	12.859390	12.401375	12.106315	12.941391	12.941391	20.000000	15.028041	14.649314	14.356697	14.055600	13.718050	13.319808	12.855363	12.394787	12.108569	12.938485	12.938485	20.000000	14.953289	14.571027	14.280581	13.983233	13.645449	13.247052	12.792460	12.344009	12.090852	12.922632	12.922632	20.000000	14.785775	14.394003	14.101558	13.801906	13.460176	13.043061	12.602574	12.179638	12.000214	12.843765	12.843765	20.000000	14.497141	14.128454	13.859187	13.578069	13.249816	12.848418	12.390835	11.944822	11.773382	12.577922	12.577922	10.000000	10.000000	10.000000	10.000000	10.000000	10.000000	10.000000	10.000000	10.000000	10.000000	10.000000	10.000000	10.000000	10.000000	10.000000	10.000000	10.000000	10.000000	10.000000	10.000000	10.000000	10.000000	10.000000	10.000000	20.000000	13.975864	13.289305	12.839906	12.472660	12.133074	11.804471	11.530353	11.293239	10.967861	11.489340	11.489340	20.000000	14.277026	13.566288	13.085193	12.695376	12.350592	12.043234	11.785119	11.563200	11.262638	11.859640	11.859640	20.000000	14.464290	13.781250	13.308894	12.918774	12.563470	12.227630	11.949168	11.707301	11.359432	11.933576	11.933576	20.000000	14.547580	13.875502	13.403341	13.007871	12.644543	12.297912	12.007011	11.753905	11.380177	11.949463	11.949463	20.000000	14.560060	13.886329	13.411017	13.012817	12.649347	12.304898	12.012800	11.758917	11.382811	11.953396	11.953396	20.000000	14.559046	13.883552	13.409351	13.011706	12.648235	12.303905	12.011971	11.758265	11.382598	11.953388	11.953388	20.000000	14.546863	13.874954	13.402260	13.006917	12.641670	12.296879	12.004427	11.752717	11.379803	11.949220	11.949220	20.000000	14.464465	13.782180	13.312319	12.921863	12.566223	12.229891	11.949182	11.707096	11.359431	11.932767	11.932767	20.000000	14.278194	13.570286	13.089934	12.702373	12.355695	12.045289	11.785154	11.563396	11.264587	11.859426	11.859426	20.000000	13.949641	13.261480	12.809597	12.445299	12.109587	11.786222	11.516736	11.284929	10.962118	11.488279	11.488279	10.000000	10.000000	10.000000	10.000000	10.000000	10.000000	10.000000	10.000000	10.000000	10.000000	10.000000	10.000000	10.000000	10.000000	10.000000	10.000000	10.000000	10.000000	10.000000	10.000000	10.000000	10.000000	10.000000	10.000000	20.000000	13.609803	12.722907	12.203140	11.839911	11.562487	11.351496	11.199222	11.053816	10.823054	11.488243	11.488243	20.000000	13.936811	13.019766	12.469728	12.094015	11.823406	11.636942	11.497192	11.368297	11.133083	11.864294	11.864294	20.000000	14.130132	13.250014	12.706842	12.317251	12.019797	11.796074	11.640417	11.500000	11.227649	11.929902	11.929902	20.000000	14.218750	13.351371	12.804910	12.406460	12.094812	11.854655	11.687569	11.539582	11.249559	11.945261	11.945261	20.000000	14.231677	13.362076	12.813309	12.414104	12.102635	11.863552	11.696403	11.547156	11.250925	11.949270	11.949270	20.000000	14.230174	13.359382	12.811748	12.411188	12.101625	11.863278	11.695591	11.546944	11.250286	11.949233	11.949233	20.000000	14.217906	13.348661	12.803941	12.405476	12.093804	11.852428	11.686681	11.539047	11.247249	11.944510	11.944510	20.000000	14.132130	13.250992	12.708035	12.320117	12.020595	11.795858	11.637850	11.498971	11.227488	11.929486	11.929486	20.000000	13.937498	13.023499	12.473698	12.097672	11.823407	11.635895	11.496048	11.367184	11.133746	11.863463	11.863463	20.000000	13.583119	12.692406	12.172910	11.814382	11.542761	11.340756	11.191691	11.047889	10.818221	11.487445	11.487445	10.000000	10.000000	10.000000	10.000000	10.000000	10.000000	10.000000	10.000000	10.000000	10.000000	10.000000	10.000000	10.000000	10.000000	10.000000	10.000000	10.000000	10.000000	10.000000	10.000000	10.000000	10.000000	10.000000	10.000000	20.000000	13.375228	12.378797	11.856332	11.539288	11.331183	11.210216	11.117133	10.988008	10.797820	11.593685	11.593685	20.000000	13.711175	12.682373	12.136323	11.813379	11.617188	11.511506	11.430840	11.320539	11.109430	11.953340	11.953340	20.000000	13.904260	12.910156	12.363283	12.019547	11.792973	11.653438	11.562567	11.444485	11.203179	12.014776	12.014776	20.000000	13.992234	13.010953	12.459977	12.102583	11.860732	11.704013	11.604647	11.480417	11.223574	12.027407	12.027407	20.000000	14.007771	13.023008	12.469208	12.113282	11.871376	11.715117	11.613558	11.488285	11.226501	12.031503	12.031503	20.000000	14.005082	13.019780	12.467980	12.110448	11.871080	11.714861	11.613352	11.488128	11.225854	12.031468	12.031468	20.000000	13.991497	13.008071	12.457277	12.101566	11.859632	11.703129	11.602613	11.477995	11.222714	12.027310	12.027310	20.000000	13.905540	12.911005	12.364293	12.020105	11.793034	11.652410	11.561645	11.442314	11.203115	12.012584	12.012584	20.000000	13.711172	12.683798	12.137298	11.813389	11.614383	11.508035	11.429634	11.319253	11.109651	11.953069	11.953069	20.000000	13.351317	12.350781	11.831761	11.519809	11.319461	11.203415	11.112418	10.984141	10.793929	11.593490	11.593490	10.000000	10.000000	10.000000	10.000000	10.000000	10.000000	10.000000	10.000000	10.000000	10.000000	10.000000	10.000000	10.000000	10.000000	10.000000	10.000000	10.000000	10.000000	10.000000	10.000000	10.000000	10.000000	10.000000	10.000000	20.000000	13.058825	11.714635	11.304745	11.199501	11.184506	11.184510	11.121036	10.969857	10.789082	11.718745	20.000000	20.000000	13.368134	12.011772	11.605411	11.496759	11.481444	11.487241	11.445102	11.312787	11.097673	12.054688	20.000000	20.000000	13.483619	12.180192	11.781318	11.653446	11.621050	11.617135	11.570101	11.432541	11.190545	12.110432	20.000000	20.000000	13.546167	12.254754	11.851832	11.714847	11.671053	11.660172	11.606584	11.464791	11.210715	12.124096	20.000000	20.000000	13.573373	12.272887	11.867332	11.729664	11.683817	11.671893	11.617174	11.472600	11.211949	12.128102	20.000000	20.000000	13.573339	12.270587	11.867006	11.727709	11.683611	11.671871	11.616981	11.471837	11.211336	12.128099	20.000000	20.000000	13.543949	12.253857	11.851207	11.712355	11.668860	11.659329	11.605732	11.462109	11.209853	12.122149	20.000000	20.000000	13.477527	12.178908	11.780434	11.652344	11.618008	11.614340	11.567461	11.429914	11.190331	12.109623	20.000000	20.000000	13.359385	12.007609	11.601566	11.493288	11.478717	11.484376	11.441998	11.311652	11.097891	12.053891	20.000000	20.000000	13.049808	11.700326	11.295968	11.195331	11.183126	11.182508	11.117145	10.966028	10.785216	11.718696	20.000000	10.000000	10.000000	10.000000	10.000000	10.000000	10.000000	10.000000	10.000000	10.000000	10.000000	10.000000	10.000000	10.000000	10.000000	10.000000	10.000000	10.000000	10.000000	10.000000	10.000000	10.000000	10.000000	10.000000	10.000000	20.000000	13.250773	11.852647	11.382978	11.309726	11.406321	11.410104	11.262002	11.012013	10.759001	11.585054	20.000000	20.000000	13.577330	12.067313	11.637884	11.559705	11.614201	11.668024	11.575299	11.340117	11.039082	11.835684	20.000000	20.000000	13.629289	12.182810	11.792943	11.714028	11.749557	11.786296	11.691425	11.446417	11.122027	11.877895	20.000000	20.000000	13.669049	12.238266	11.859662	11.785942	11.813615	11.832289	11.726580	11.473554	11.137866	11.885907	20.000000	20.000000	13.700321	12.257628	11.880213	11.811859	11.838952	11.847456	11.735415	11.480453	11.140395	11.887783	20.000000	20.000000	13.702086	12.257017	11.879954	11.811674	11.837079	11.846862	11.734946	11.480227	11.139750	11.887779	20.000000	20.000000	13.667796	12.235228	11.859173	11.785172	11.813076	11.831982	11.725740	11.472652	11.136992	11.885708	20.000000	20.000000	13.621476	12.176870	11.789351	11.711225	11.747169	11.785428	11.690569	11.445316	11.121328	11.875875	20.000000	20.000000	13.562503	12.059689	11.635920	11.558181	11.612468	11.667109	11.574234	11.338998	11.039137	11.834923	20.000000	20.000000	13.242384	11.851360	11.382426	11.308652	11.404643	11.406254	11.257884	11.008753	10.755095	11.585056	20.000000	10.000000	10.000000	10.000000	10.000000	10.000000	10.000000	10.000000	10.000000	10.000000	10.000000	10.000000	10.000000	10.000000	10.000000	10.000000	10.000000	10.000000	10.000000	10.000000	10.000000	10.000000	10.000000	10.000000	10.000000	20.000000	13.397908	12.324234	11.878856	11.703623	11.652619	11.542970	11.344196	11.059688	10.745870	11.171858	20.000000	20.000000	13.804703	12.531265	12.066623	11.903473	11.882905	11.825097	11.660143	11.371039	11.000073	11.358513	20.000000	20.000000	13.871497	12.577934	12.135941	11.985497	11.972672	11.926050	11.758956	11.460968	11.074219	11.395588	20.000000	20.000000	13.909078	12.602160	12.164270	12.020664	12.008762	11.961205	11.788249	11.480643	11.086864	11.402400	20.000000	20.000000	13.937128	12.624244	12.179022	12.035407	12.023352	11.973927	11.797002	11.485377	11.088964	11.403465	20.000000	20.000000	13.937456	12.624241	12.177602	12.035172	12.022822	11.973730	11.796890	11.484667	11.088758	11.403453	20.000000	20.000000	13.906470	12.599647	12.161099	12.019535	12.007817	11.960400	11.785667	11.479636	11.085953	11.402329	20.000000	20.000000	13.864374	12.570313	12.129675	11.981553	11.969740	11.922953	11.757612	11.458162	11.073339	11.394809	20.000000	20.000000	13.792677	12.520579	12.061702	11.899519	11.879876	11.821412	11.656493	11.368089	10.999998	11.358315	20.000000	20.000000	13.390572	12.321301	11.878084	11.703399	11.652360	11.540189	11.340973	11.055790	10.742127	11.171005	20.000000	10.000000	10.000000	10.000000	10.000000	10.000000	10.000000	10.000000	10.000000	10.000000	10.000000	10.000000	10.000000	10.000000	10.000000	10.000000	10.000000	10.000000	10.000000	10.000000	10.000000	10.000000	10.000000	10.000000	10.000000	20.000000	13.151588	12.566216	12.203101	11.936699	11.699496	11.465751	11.218696	10.942580	10.648198	10.715757	20.000000	20.000000	13.608661	12.941221	12.571331	12.316128	12.093618	11.854607	11.578120	11.247014	10.867479	10.843470	20.000000	20.000000	13.691287	13.007813	12.633824	12.377949	12.157105	11.921071	11.645424	11.312785	10.924903	10.874058	20.000000	20.000000	13.727320	13.035145	12.656237	12.394531	12.171875	11.933393	11.656318	11.323362	10.933320	10.878686	20.000000	20.000000	13.755036	13.057693	12.672131	12.407124	12.183294	11.941462	11.663239	11.327277	10.933883	10.878966	20.000000	20.000000	13.757627	13.057858	12.672210	12.407102	12.183004	11.941422	11.663187	11.327211	10.933804	10.878926	20.000000	20.000000	13.726798	13.033089	12.653356	12.391671	12.169034	11.930707	11.655375	11.321227	10.930872	10.878616	20.000000	20.000000	13.687321	13.001953	12.629003	12.372079	12.152592	11.917112	11.641681	11.310035	10.922827	10.873841	20.000000	20.000000	13.597988	12.930680	12.563471	12.308590	12.086040	11.847684	11.573239	11.243271	10.866952	10.842850	20.000000	20.000000	13.143607	12.559608	12.199009	11.933342	11.696361	11.463797	11.215126	10.941173	10.644771	10.714773	20.000000	10.000000	10.000000	10.000000	10.000000	10.000000	10.000000	10.000000	10.000000	10.000000	10.000000	10.000000	10.000000	10.000000	10.000000	10.000000	10.000000	10.000000	10.000000	10.000000	10.000000	10.000000	10.000000	10.000000	10.000000	10.000000	10.101564	10.148358	10.174588	10.186259	10.184834	10.174779	10.153588	10.125063	10.093731	10.187204	20.000000	10.000000	10.121332	10.180696	10.218735	10.238356	10.243421	10.234450	10.210998	10.174588	10.129222	10.208283	20.000000	10.000000	10.124981	10.186262	10.223893	10.245855	10.251189	10.242500	10.219738	10.183284	10.136783	10.213884	20.000000	10.000000	10.125952	10.187502	10.226547	10.247089	10.253654	10.244908	10.221474	10.183598	10.137681	10.214608	20.000000	10.000000	10.127657	10.188693	10.227798	10.249747	10.254861	10.246093	10.222593	10.183908	10.137918	10.214825	20.000000	10.000000	10.127659	10.188697	10.227808	10.249751	10.254882	10.246094	10.222594	10.183908	10.137917	10.214840	20.000000	10.000000	10.125952	10.187499	10.226543	10.247046	10.253609	10.244861	10.221422	10.183589	10.137144	10.214781	20.000000	10.000000	10.124925	10.184835	10.223668	10.245142	10.250940	10.242261	10.219003	10.182588	10.136723	10.214546	20.000000	10.000000	10.121113	10.179983	10.218441	10.238204	10.242496	10.234301	10.210860	10.173117	10.129162	10.209934	20.000000	10.000000	10.101543	10.148137	10.173128	10.184776	10.184556	10.174539	10.153309	10.124981	10.093493	10.184555	20.000000	10.000000	10.000000	10.000000	10.000000	10.000000	10.000000	10.000000	10.000000	10.000000	10.000000	10.000000	10.000000	10.000000	10.000000	10.000000	10.000000	10.000000	10.000000	10.000000	10.000000	10.000000	10.000000	10.000000	10.000000	10.000000	10.012932	10.027325	10.039306	10.049811	10.055942	10.058897	10.058518	10.052052	10.045858	10.128654	20.000000	10.000000	10.015929	10.034843	10.051024	10.066163	10.076919	10.082037	10.081971	10.074462	10.063518	10.137685	20.000000	10.000000	10.016648	10.035172	10.053430	10.067439	10.078439	10.085640	10.085640	10.078178	10.066702	10.140606	20.000000	10.000000	10.016823	10.035240	10.053658	10.068801	10.079155	10.085876	10.085875	10.078380	10.067365	10.140640	20.000000	10.000000	10.016839	10.035460	10.054375	10.069284	10.080767	10.086002	10.085958	10.079082	10.067437	10.140688	20.000000	10.000000	10.016839	10.035460	10.054375	10.069287	10.080767	10.086002	10.085958	10.079085	10.067438	10.140862	20.000000	10.000000	10.016823	10.035236	10.053658	10.067677	10.079152	10.085874	10.085862	10.078368	10.067364	10.140736	20.000000	10.000000	10.016646	10.035159	10.053380	10.067422	10.078382	10.084986	10.084986	10.078129	10.066660	10.140703	20.000000	10.000000	10.015928	10.034838	10.050857	10.066104	10.076857	10.082016	10.081793	10.074294	10.063505	10.139438	20.000000	10.000000	10.012921	10.027283	10.039143	10.049765	10.055885	10.058847	10.058350	10.051994	10.045679	10.125241	20.000000	10.000000	10.000000	10.000000	10.000000	10.000000	10.000000	10.000000	10.000000	10.000000	10.000000	10.000000	10.000000	10.000000	10.000000	10.000000	10.000000	10.000000	10.000000	10.000000	10.000000	10.000000	10.000000	10.000000	10.000000	10.000000	10.001263	10.004208	10.008053	10.011960	10.015705	10.019529	10.022305	10.023424	10.024710	10.093748	20.000000	10.000000	10.002687	10.006550	10.011415	10.015925	10.022240	10.027268	10.031170	10.032450	10.034839	10.093512	20.000000	10.000000	10.002691	10.006598	10.011639	10.016647	10.023176	10.027598	10.031551	10.034843	10.035456	10.093992	20.000000	10.000000	10.002702	10.006610	10.011654	10.016663	10.023193	10.027647	10.031686	10.034901	10.035475	10.093993	20.000000	10.000000	10.002702	10.006614	10.011659	10.016838	10.023362	10.028302	10.032227	10.035077	10.036128	10.093989	20.000000	10.000000	10.002702	10.006614	10.011659	10.016838	10.023362	10.028302	10.032227	10.035077	10.036128	10.094063	20.000000	10.000000	10.002691	10.006610	10.011653	10.016663	10.023193	10.027644	10.031569	10.034899	10.035474	10.094720	20.000000	10.000000	10.002691	10.006598	10.011562	10.016644	10.023137	10.027587	10.031509	10.034839	10.035415	10.094999	20.000000	10.000000	10.002687	10.006550	10.011415	10.015884	10.022236	10.027264	10.031007	10.032287	10.034755	10.094954	20.000000	10.000000	10.001261	10.004207	10.007931	10.011958	10.015704	10.019526	10.022237	10.023418	10.024652	10.089587	20.000000	10.000000	10.000000	10.000000	10.000000	10.000000	10.000000	10.000000	10.000000	10.000000	10.000000	10.000000	10.000000	10.000000	10.000000	10.000000	10.000000	10.000000	10.000000	10.000000	10.000000	10.000000	10.000000	10.000000	10.000000	10.000000	10.000060	10.000305	10.001265	10.003647	10.004869	10.007508	10.009015	10.011784	10.016899	10.089605	20.000000	10.000000	10.000064	10.000965	10.002703	10.003968	10.006793	10.009019	10.012037	10.015882	10.022241	10.078424	20.000000	10.000000	10.000064	10.000975	10.002859	10.003985	10.006852	10.009090	10.012756	10.016659	10.023358	10.078379	20.000000	10.000000	10.000064	10.000976	10.002867	10.003986	10.007344	10.010442	10.012918	10.016823	10.023374	10.078131	20.000000	10.000000	10.000064	10.000976	10.002868	10.004147	10.007496	10.010456	10.012932	10.016838	10.023417	10.078050	20.000000	10.000000	10.000064	10.000976	10.002868	10.004147	10.007494	10.010446	10.012932	10.016829	10.023417	10.078190	20.000000	10.000000	10.000064	10.000976	10.002867	10.003986	10.006987	10.010442	10.012918	10.016814	10.023376	10.079137	20.000000	10.000000	10.000064	10.000975	10.002730	10.003985	10.006852	10.009089	10.012756	10.016659	10.023358	10.081015	20.000000	10.000000	10.000064	10.000965	10.002703	10.003967	10.006792	10.009015	10.012034	10.015880	10.022400	10.082047	20.000000	10.000000	10.000060	10.000305	10.001265	10.003646	10.004867	10.007508	10.009012	10.011783	10.016839	10.082029	20.000000	10.000000	10.000000	10.000000	10.000000	10.000000	10.000000	10.000000	10.000000	10.000000	10.000000	10.000000	10.000000	10.000000	10.000000	10.000000	10.000000	10.000000	10.000000	10.000000	10.000000	10.000000	10.000000	10.000000	10.000000	10.000000	10.000000	10.000000	10.000000	10.000000	10.000000	10.000000	10.000000	10.000000	10.000000	10.000000	10.000000	10.000000	10.000000	10.000000	10.000000	10.000000	10.000000	10.000000	10.000000	10.000000	10.000000	10.000000	10.000000	10.000000	10.000000	10.000000	10.000000	10.000000	10.000000	10.000000	10.000000	10.000000	10.000000	10.000000	10.000000	10.000000	10.000000	10.000000	10.000000	10.000000	10.000000	10.000000	10.000000	10.000000	10.000000	10.000000	10.000000	10.000000	10.000000	10.000000	10.000000	10.000000	10.000000	10.000000	10.000000	10.000000	10.000000	10.000000	10.000000	10.000000	10.000000	10.000000	10.000000	10.000000	10.000000	10.000000	10.000000	10.000000	10.000000	10.000000	10.000000	10.000000	10.000000	10.000000	10.000000	10.000000	10.000000	10.000000	10.000000	10.000000	10.000000	10.000000	10.000000	10.000000	10.000000	10.000000	10.000000	10.000000	10.000000	10.000000	10.000000	10.000000	10.000000	10.000000	10.000000	10.000000	10.000000	10.000000	10.000000	10.000000	10.000000	10.000000	10.000000	10.000000	10.000000	10.000000	10.000000	10.000000	10.000000	10.000000	10.000000	10.000000	10.000000	10.000000	10.000000	10.000000	10.000000	10.000000	10.000000	10.000000	10.000000	10.000000	10.000000	10.000000	10.000000	10.000000	10.000000	10.000000	10.000000	10.000000	16.666666	
SCALARS P float 1
LOOKUP_TABLE default